40
	Energy:      86.4470446
O         -0.32802        2.00439        0.18812
C         -0.83045        0.90995       -0.00829
N         -0.02793       -0.18775       -0.12875
C          1.42247       -0.14075       -0.03387
C          2.05415       -0.65143       -1.33763
O          1.65500        0.16998       -2.40401
C          3.56509       -0.67015       -1.24220
C          4.26510       -1.88303       -1.34313
C          5.65942       -1.88537       -1.25609
N          6.33404       -0.71930       -1.07673
C          5.68547        0.47090       -0.97832
C          4.29182        0.51889       -1.05968
N         -2.18751        0.76233       -0.11175
C         -3.19707        1.78336       -0.01634
C         -4.55603        1.37822       -0.15996
C         -5.61316        2.30166       -0.08236
C         -5.28716        3.63141        0.14052
N         -6.10532        4.68636        0.25261
C         -5.27410        5.73530        0.46296
C         -5.74121        7.14152        0.64990
F         -5.33539        7.60324        1.88784
F         -5.20157        7.94360       -0.33794
N         -3.96516        5.37598        0.48671
C         -3.99840        4.04661        0.28147
C         -2.92294        3.16477        0.21131
H         -0.45990       -1.11001       -0.29439
H          1.78413        0.88791        0.17815
H          1.74200       -0.79064        0.80967
H          1.66530       -1.68502       -1.49955
H          1.81069       -0.34703       -3.23741
H          3.73948       -2.81882       -1.48653
H          6.20580       -2.81601       -1.33173
H          6.25213        1.38169       -0.83806
H          3.78703        1.47351       -0.98385
H         -2.53101       -0.19642       -0.27874
H         -4.79642        0.33681       -0.33362
H         -6.64264        1.98624       -0.19248
H         -7.14801        4.69546        0.19133
H         -6.84881        7.19109        0.59089
H         -1.93896        3.57954        0.33391
