37
	Energy:      41.9413627
C         -5.39792        2.50832        0.60176
O         -4.35268        1.62131        0.46040
C         -3.02116        1.91259        0.48949
C         -2.16283        0.89266        0.33065
C         -0.68821        1.09331        0.34505
C          0.10551        0.00822        0.17735
N          1.53141        0.04449        0.16841
N          2.24773       -1.12085       -0.01114
C          3.67000       -1.12909       -0.02548
C          4.36309       -2.33140       -0.21101
C          5.75887       -2.32805       -0.22321
C          6.46704       -1.12706       -0.05056
N          7.89404       -1.11274       -0.06131
O          8.49204       -0.08942        0.08596
O          8.57112       -2.22840       -0.23382
C          5.72992        0.05700        0.13265
N          4.37101        0.02622        0.14037
C         -0.16848        2.47947        0.54351
C         -1.01337        3.52317        0.70560
O         -0.57414        4.80198        0.88893
C          0.73983        5.22182        0.93663
C         -2.47843        3.29298        0.68689
O         -3.22580        4.24697        0.83485
H         -6.35467        1.95169        0.52980
H         -5.35428        2.99991        1.59672
H         -5.37304        3.26575       -0.21015
H         -2.56396       -0.10828        0.18759
H         -0.37054       -0.95997        0.03966
H          2.03872        0.92815        0.29420
H          1.74367       -2.01231       -0.13875
H          3.82735       -3.26285       -0.34499
H          6.28216       -3.26448       -0.36758
H          6.23143        1.00585        0.26960
H          0.89401        2.66583        0.55990
H          0.76348        6.31905        1.09761
H          1.27015        4.72963        1.77955
H          1.25093        4.99454       -0.02313
