49
	Energy:     118.2629296
O         -2.71811        2.85662        2.32423
C         -3.45295        2.49609        1.42060
C         -2.82200        2.14282        0.09822
N         -1.91207        1.02488        0.27353
C         -0.57711        1.08980        0.00528
O         -0.08185        2.13126       -0.40511
N          0.20174       -0.01462        0.18982
C          1.63174       -0.04445       -0.07200
C          1.98663       -1.05124       -1.18881
C          1.45525       -0.64101       -2.54359
C          0.21080       -0.71557       -3.01710
C         -0.95942       -1.21039       -2.42927
C         -2.15231       -1.16156       -3.16958
C         -2.16030       -0.63198       -4.47437
C         -0.97336       -0.15366       -5.05176
C          0.19875       -0.21230       -4.29757
N          1.34956        0.17280       -4.69456
C          2.30792       -0.05837       -3.63770
C          2.35331       -0.40322        1.20122
O          2.13879       -1.47384        1.75179
O          3.23986        0.46331        1.73566
N         -4.80942        2.41053        1.58072
C         -5.57956        2.70577        2.76312
C         -5.02077        3.14904        3.99265
C         -5.83148        3.41894        5.10817
C         -7.21723        3.26022        5.04601
C         -7.79101        2.82808        3.85690
N         -9.12567        2.64495        3.70123
S         -9.23093        2.14008        2.13190
N         -7.66035        2.13533        1.61580
C         -6.98203        2.55065        2.71798
H         -3.59234        1.85374       -0.64803
H         -2.30413        3.04462       -0.29295
H         -2.31206        0.13703        0.61496
H         -0.23729       -0.88023        0.54009
H          2.00035        0.95373       -0.39872
H          3.09646       -1.04514       -1.26764
H          1.67479       -2.09034       -0.94736
H         -0.96597       -1.63392       -1.43854
H         -3.06998       -1.53693       -2.73569
H         -3.08402       -0.60004       -5.03733
H         -0.97102        0.24686       -6.05768
H          2.76619        0.90008       -3.31360
H          3.08938       -0.77653       -3.96504
H          3.71667        0.25834        2.55243
H         -5.34032        2.09614        0.75512
H         -3.96803        3.30107        4.14013
H         -5.37647        3.75528        6.03122
H         -7.83162        3.47129        5.91221
